
     Program PWSCF v.6.1 (svn rev. 13369) starts on 17Aug2017 at 15:50:13 

     This program is part of the open-source Quantum ESPRESSO suite
     for quantum simulation of materials; please cite
         "P. Giannozzi et al., J. Phys.:Condens. Matter 21 395502 (2009);
          URL http://www.quantum-espresso.org", 
     in publications or presentations arising from this work. More details at
     http://www.quantum-espresso.org/quote

     Parallel version (MPI), running on    10 processors
     R & G space division:  proc/nbgrp/npool/nimage =      10
     Waiting for input...
     Reading input from standard input
Warning: card  &IONS ignored
Warning: card / ignored

     Current dimensions of program PWSCF are:
     Max number of different atomic species (ntypx) = 10
     Max number of k-points (npk) =  40000
     Max angular momentum in pseudopotentials (lmaxx) =  3

     Subspace diagonalization in iterative solution of the eigenvalue problem:
     one sub-group per band group will be used
     scalapack distributed-memory algorithm (size of sub-group:  2*  2 procs)

 
     Parallelization info
     --------------------
     sticks:   dense  smooth     PW     G-vecs:    dense   smooth      PW
     Min        2655    1064    281               185712    46977    6420
     Max        2657    1066    282               185713    46978    6421
     Sum       26557   10651   2815              1857129   469777   64205
 


     bravais-lattice index     =            4
     lattice parameter (alat)  =      30.2923  a.u.
     unit-cell volume          =   12776.8047 (a.u.)^3
     number of atoms/cell      =          130
     number of atomic types    =            2
     number of electrons       =       522.00
     number of Kohn-Sham states=          261
     kinetic-energy cutoff     =      42.0000  Ry
     charge density cutoff     =     420.0000  Ry
     convergence threshold     =      1.0E-10
     mixing beta               =       0.7000
     number of iterations used =            8  plain     mixing
     Exchange-correlation      =  SLA  PW   PBX  PBC ( 1  4  3  4 0 0)

     celldm(1)=  30.292322  celldm(2)=   0.000000  celldm(3)=   0.530755
     celldm(4)=   0.000000  celldm(5)=   0.000000  celldm(6)=   0.000000

     crystal axes: (cart. coord. in units of alat)
               a(1) = (   1.000000   0.000000   0.000000 )  
               a(2) = (  -0.500000   0.866025   0.000000 )  
               a(3) = (   0.000000   0.000000   0.530755 )  

     reciprocal axes: (cart. coord. in units 2 pi/alat)
               b(1) = (  1.000000  0.577350  0.000000 )  
               b(2) = (  0.000000  1.154701  0.000000 )  
               b(3) = (  0.000000  0.000000  1.884109 )  


     PseudoPot. # 1 for C  read from file:
     /home/ren/pseudo/C.pbe-rrkjus-gipaw-dc.UPF
     MD5 check sum: fbcc0d6599cfc7177c0bcbbe11da8107
     Pseudo is Ultrasoft + core correction, Zval =  4.0
     Generated by new atomic code, or converted to UPF format
     Using radial grid of  671 points,  4 beta functions with: 
                l(1) =   0
                l(2) =   0
                l(3) =   1
                l(4) =   1
     Q(r) pseudized with 0 coefficients 


     PseudoPot. # 2 for N  read from file:
     /home/ren/pseudo/N.pbe-rrkjus-gipaw-dc.UPF
     MD5 check sum: 1c15ce7432893cbba1a24a2259573193
     Pseudo is Ultrasoft + core correction, Zval =  5.0
     Generated by new atomic code, or converted to UPF format
     Using radial grid of  679 points,  4 beta functions with: 
                l(1) =   0
                l(2) =   0
                l(3) =   1
                l(4) =   1
     Q(r) pseudized with 0 coefficients 


     atomic species   valence    mass     pseudopotential
        C              4.00    12.00000     C ( 1.00)
        N              5.00    16.00000     N ( 1.00)

     No symmetry found



   Cartesian axes

     site n.     atom                  positions (alat units)
         1           C   tau(   1) = (   0.4579487   0.7665989   0.0885359  )
         2           C   tau(   2) = (   0.5198374   0.7204578   0.0443814  )
         3           C   tau(   3) = (   0.0420969   0.0981406   0.0886047  )
         4           C   tau(   4) = (  -0.0186204   0.1459126   0.0444173  )
         5           C   tau(   5) = (   0.5713582   0.6629233   0.0886041  )
         6           C   tau(   6) = (   0.1109433   0.0630052   0.0444353  )
         7           C   tau(   7) = (   0.2624388   0.0363767   0.2213121  )
         8           C   tau(   8) = (   0.3390170   0.0465695   0.1770817  )
         9           C   tau(   9) = (  -0.0690809   0.2044196   0.0886094  )
        10           C   tau(  10) = (   0.1853757   0.0420978   0.1770980  )
        11           C   tau(  11) = (   0.6338711   0.5226168   0.1770755  )
        12           C   tau(  12) = (   0.6424556   0.4460014   0.2213567  )
        13           C   tau(  13) = (  -0.1399535   0.4978597   0.1770137  )
        14           C   tau(  14) = (   0.6099399   0.5960205   0.2212814  )
        15           C   tau(  15) = (   0.1596573   0.8145509   0.1770075  )
        16           C   tau(  16) = (   0.2363461   0.8226944   0.2212467  )
        17           C   tau(  17) = (   0.6363119   0.3690410   0.1771821  )
        18           C   tau(  18) = (   0.0861350   0.7911037   0.2212329  )
        19           C   tau(  19) = (   0.3133797   0.8185005   0.1770527  )
        20           C   tau(  20) = (   0.4119310   0.0719875   0.2213149  )
        21           C   tau(  21) = (   0.4119395   0.0720553   0.0444830  )
        22           C   tau(  22) = (  -0.1400618   0.4977832   0.0885465  )
        23           C   tau(  23) = (  -0.1442978   0.4206668   0.0443460  )
        24           C   tau(  24) = (  -0.1332747   0.3442593   0.0886084  )
        25           C   tau(  25) = (  -0.1078342   0.2712576   0.0444366  )
        26           C   tau(  26) = (   0.6364624   0.3689736   0.0887176  )
        27           C   tau(  27) = (   0.6426703   0.4459048   0.0444771  )
        28           C   tau(  28) = (   0.6338496   0.5226117   0.0886403  )
        29           C   tau(  29) = (   0.2623853   0.0365041   0.0444249  )
        30           C   tau(  30) = (   0.3389467   0.0466724   0.0886471  )
        31           C   tau(  31) = (   0.6160171   0.2944647   0.0445433  )
        32           C   tau(  32) = (   0.0187673   0.7536768   0.0885224  )
        33           C   tau(  33) = (  -0.0396811   0.7032159   0.0443683  )
        34           C   tau(  34) = (  -0.0869687   0.6420649   0.0885850  )
        35           C   tau(  35) = (   0.3881965   0.7998144   0.0443376  )
        36           C   tau(  36) = (   0.4784398   0.1114126   0.0887077  )
        37           C   tau(  37) = (   0.5358381   0.1631216   0.0444857  )
        38           C   tau(  38) = (   0.5821638   0.2249643   0.0886708  )
        39           C   tau(  39) = (  -0.1208432   0.5725837   0.0443792  )
        40           C   tau(  40) = (   0.6098977   0.5960130   0.0444166  )
        41           C   tau(  41) = (   0.4118281   0.0719922   0.3097789  )
        42           C   tau(  42) = (   0.6146226   0.2951509   0.3098607  )
        43           C   tau(  43) = (   0.0186297   0.7535337   0.3539703  )
        44           C   tau(  44) = (   0.3881509   0.7991452   0.3097192  )
        45           C   tau(  45) = (   0.4780312   0.1116655   0.3540380  )
        46           C   tau(  46) = (   0.5348979   0.1638021   0.3098381  )
        47           C   tau(  47) = (   0.5806409   0.2259319   0.3541291  )
        48           C   tau(  48) = (   0.1112317   0.0632667   0.3097750  )
        49           C   tau(  49) = (   0.5715159   0.6629963   0.3539691  )
        50           C   tau(  50) = (   0.5198749   0.7203198   0.3097019  )
        51           C   tau(  51) = (   0.4578575   0.7661686   0.3539791  )
        52           C   tau(  52) = (   0.5814716   0.2254274   0.4425754  )
        53           C   tau(  53) = (   0.5356637   0.1632250   0.4867622  )
        54           C   tau(  54) = (   0.0424661   0.0985343   0.4424853  )
        55           C   tau(  55) = (  -0.0183467   0.1461406   0.4866810  )
        56           C   tau(  56) = (   0.0187602   0.7536349   0.4424266  )
        57           C   tau(  57) = (   0.1110291   0.0630946   0.4866879  )
        58           C   tau(  58) = (  -0.0870247   0.6421321   0.4424400  )
        59           C   tau(  59) = (  -0.0397146   0.7032583   0.4866457  )
        60           C   tau(  60) = (   0.4782868   0.1115142   0.4425188  )
        61           C   tau(  61) = (  -0.1207837   0.5725774   0.4866466  )
        62           C   tau(  62) = (   0.0186554   0.7536195   0.1769823  )
        63           C   tau(  63) = (   0.1110753   0.0631000   0.2213046  )
        64           C   tau(  64) = (  -0.1433846   0.4209334   0.3097367  )
        65           C   tau(  65) = (  -0.1319297   0.3447181   0.3539946  )
        66           C   tau(  66) = (   0.4580081   0.7665614   0.1770115  )
        67           C   tau(  67) = (   0.5199155   0.7204744   0.2212546  )
        68           C   tau(  68) = (   0.5713460   0.6629045   0.1770737  )
        69           C   tau(  69) = (   0.6339076   0.5227321   0.3540783  )
        70           C   tau(  70) = (   0.0422671   0.0982201   0.1771020  )
        71           C   tau(  71) = (  -0.0180222   0.1463557   0.2213450  )
        72           C   tau(  72) = (  -0.0684964   0.2047555   0.1771181  )
        73           C   tau(  73) = (   0.3881806   0.7993927   0.2212691  )
        74           C   tau(  74) = (   0.3881954   0.7997587   0.4865940  )
        75           C   tau(  75) = (  -0.0684792   0.2048232   0.4424767  )
        76           C   tau(  76) = (   0.5198347   0.7204064   0.4866737  )
        77           C   tau(  77) = (   0.4578595   0.7663669   0.4424471  )
        78           C   tau(  78) = (   0.3134094   0.8191570   0.0885409  )
        79           C   tau(  79) = (   0.5713306   0.6628906   0.4424673  )
        80           C   tau(  80) = (   0.1596035   0.8151217   0.0885458  )
        81           C   tau(  81) = (   0.2363286   0.8244724   0.0443570  )
        82           C   tau(  82) = (   0.1853429   0.0420608   0.0886159  )
        83           C   tau(  83) = (   0.0861388   0.7914537   0.0443192  )
        84           C   tau(  84) = (  -0.1056837   0.2723265   0.3097875  )
        85           C   tau(  85) = (   0.6358167   0.3692858   0.3540489  )
        86           C   tau(  86) = (   0.6423325   0.4461298   0.3098068  )
        87           C   tau(  87) = (   0.6101083   0.5961190   0.3098006  )
        88           C   tau(  88) = (  -0.1209214   0.5727969   0.3097514  )
        89           C   tau(  89) = (   0.3132942   0.8178450   0.3539394  )
        90           C   tau(  90) = (  -0.0873034   0.6423247   0.3539415  )
        91           C   tau(  91) = (   0.3390384   0.0463484   0.3540505  )
        92           C   tau(  92) = (   0.2624743   0.0361364   0.3098153  )
        93           C   tau(  93) = (  -0.1397841   0.4979286   0.3539979  )
        94           C   tau(  94) = (  -0.0400439   0.7034229   0.3096979  )
        95           C   tau(  95) = (   0.1597849   0.8139159   0.3539473  )
        96           C   tau(  96) = (   0.2363785   0.8219669   0.3097041  )
        97           C   tau(  97) = (   0.1854356   0.0419878   0.3540100  )
        98           C   tau(  98) = (   0.0861386   0.7909228   0.3097126  )
        99           C   tau(  99) = (  -0.1436049   0.4208354   0.2213010  )
       100           C   tau( 100) = (  -0.1325822   0.3444914   0.1770697  )
       101           C   tau( 101) = (   0.4784180   0.1113845   0.1771697  )
       102           C   tau( 102) = (  -0.1208804   0.5727418   0.2212434  )
       103           C   tau( 103) = (  -0.0871039   0.6421780   0.1770510  )
       104           C   tau( 104) = (  -0.0399938   0.7033804   0.2212177  )
       105           C   tau( 105) = (  -0.1063332   0.2719820   0.2213060  )
       106           C   tau( 106) = (   0.6154084   0.2947242   0.2213814  )
       107           C   tau( 107) = (   0.5820139   0.2250689   0.1771953  )
       108           C   tau( 108) = (   0.5355482   0.1633547   0.2214015  )
       109           C   tau( 109) = (   0.4119491   0.0719756   0.4867519  )
       110           C   tau( 110) = (   0.3133654   0.8188793   0.4424143  )
       111           C   tau( 111) = (   0.2363435   0.8244520   0.4866137  )
       112           C   tau( 112) = (   0.1596829   0.8149016   0.4424032  )
       113           C   tau( 113) = (  -0.0676485   0.2053302   0.3540115  )
       114           C   tau( 114) = (   0.1853867   0.0420940   0.4425182  )
       115           C   tau( 115) = (   0.2624143   0.0364633   0.4867448  )
       116           C   tau( 116) = (   0.3390253   0.0464770   0.4425255  )
       117           C   tau( 117) = (   0.0427157   0.0987136   0.3540236  )
       118           C   tau( 118) = (  -0.0176431   0.1466610   0.3097771  )
       119           C   tau( 119) = (   0.6158112   0.2946151   0.4867625  )
       120           C   tau( 120) = (  -0.1075339   0.2714210   0.4866527  )
       121           C   tau( 121) = (  -0.1327422   0.3444201   0.4424360  )
       122           C   tau( 122) = (  -0.1441900   0.4206967   0.4866494  )
       123           C   tau( 123) = (  -0.1399662   0.4977930   0.4424542  )
       124           C   tau( 124) = (   0.6098842   0.5960019   0.4867206  )
       125           C   tau( 125) = (   0.6339915   0.5226621   0.4425453  )
       126           C   tau( 126) = (   0.6427689   0.4459686   0.4867634  )
       127           C   tau( 127) = (   0.6362786   0.3690925   0.4425517  )
       128           C   tau( 128) = (   0.0861278   0.7914897   0.4865991  )
       129           N   tau( 129) = (   0.7510315   0.1440386   0.3279907  )
       130           N   tau( 130) = (   0.7490347   0.1455444   0.2582672  )

     number of k points=     8
                       cart. coord. in units 2pi/alat
        k(    1) = (   0.0000000   0.0000000   0.0000000), wk =   0.1428571
        k(    2) = (   0.0000000   0.0000000   0.1345792), wk =   0.2857143
        k(    3) = (   0.0000000   0.0000000   0.2691585), wk =   0.2857143
        k(    4) = (   0.0000000   0.0000000   0.4037377), wk =   0.2857143
        k(    5) = (   0.0000000   0.0000000   0.5383169), wk =   0.2857143
        k(    6) = (   0.0000000   0.0000000   0.6728961), wk =   0.2857143
        k(    7) = (   0.0000000   0.0000000   0.8074754), wk =   0.2857143
        k(    8) = (   0.0000000   0.0000000  -0.9420546), wk =   0.1428571

     Dense  grid:  1857129 G-vectors     FFT dimensions: ( 200, 200, 108)

     Smooth grid:   469777 G-vectors     FFT dimensions: ( 125, 125,  72)

     Estimated max dynamical RAM per process >     609.57MB

     Estimated total allocated dynamical RAM >    6095.68MB

     Initial potential from superposition of free atoms

     starting charge  521.99313, renormalised to  522.00000

     negative rho (up, down):  7.770E-05 0.000E+00
     Starting wfc are 1040 randomized atomic wfcs

     total cpu time spent up to now is      136.5 secs

     per-process dynamical memory:   444.2 Mb

     Self-consistent Calculation

     iteration #  1     ecut=    42.00 Ry     beta=0.70
     Davidson diagonalization with overlap
     ethr =  1.00E-02,  avg # of iterations =  2.0

     negative rho (up, down):  1.393E-04 0.000E+00

     total cpu time spent up to now is      255.8 secs

     total energy              =   -1500.89277320 Ry
     Harris-Foulkes estimate   =   -1508.62955522 Ry
     estimated scf accuracy    <      12.94143471 Ry

     iteration #  2     ecut=    42.00 Ry     beta=0.70
     Davidson diagonalization with overlap
     ethr =  2.48E-03,  avg # of iterations =  2.0

     negative rho (up, down):  2.399E-04 0.000E+00

     total cpu time spent up to now is      371.6 secs

     total energy              =   -1502.77136406 Ry
     Harris-Foulkes estimate   =   -1502.93628488 Ry
     estimated scf accuracy    <       0.34201583 Ry

     iteration #  3     ecut=    42.00 Ry     beta=0.70
     Davidson diagonalization with overlap
     ethr =  6.55E-05,  avg # of iterations =  2.4

     negative rho (up, down):  2.788E-04 0.000E+00

     total cpu time spent up to now is      483.9 secs

     total energy              =   -1502.83412417 Ry
     Harris-Foulkes estimate   =   -1502.93499546 Ry
     estimated scf accuracy    <       0.18845154 Ry

     iteration #  4     ecut=    42.00 Ry     beta=0.70
     Davidson diagonalization with overlap
     ethr =  3.61E-05,  avg # of iterations =  2.4

     negative rho (up, down):  3.282E-04 0.000E+00

     total cpu time spent up to now is      595.9 secs

     total energy              =   -1502.88324523 Ry
     Harris-Foulkes estimate   =   -1502.88653131 Ry
     estimated scf accuracy    <       0.01072280 Ry

     iteration #  5     ecut=    42.00 Ry     beta=0.70
     Davidson diagonalization with overlap
     ethr =  2.05E-06,  avg # of iterations =  4.5

     negative rho (up, down):  3.321E-04 0.000E+00

     total cpu time spent up to now is      727.4 secs

     total energy              =   -1502.88548720 Ry
     Harris-Foulkes estimate   =   -1502.88608195 Ry
     estimated scf accuracy    <       0.00126063 Ry

     iteration #  6     ecut=    42.00 Ry     beta=0.70
     Davidson diagonalization with overlap
     ethr =  2.42E-07,  avg # of iterations =  4.6

     negative rho (up, down):  3.350E-04 0.000E+00

     total cpu time spent up to now is      845.6 secs

     total energy              =   -1502.88578845 Ry
     Harris-Foulkes estimate   =   -1502.88594443 Ry
     estimated scf accuracy    <       0.00049833 Ry

     iteration #  7     ecut=    42.00 Ry     beta=0.70
     Davidson diagonalization with overlap
     ethr =  9.55E-08,  avg # of iterations =  4.4

     negative rho (up, down):  3.356E-04 0.000E+00

     total cpu time spent up to now is      952.7 secs

     total energy              =   -1502.88586952 Ry
     Harris-Foulkes estimate   =   -1502.88587493 Ry
     estimated scf accuracy    <       0.00001277 Ry

     iteration #  8     ecut=    42.00 Ry     beta=0.70
     Davidson diagonalization with overlap
     ethr =  2.45E-09,  avg # of iterations =  4.6

     negative rho (up, down):  3.359E-04 0.000E+00

     total cpu time spent up to now is     1108.8 secs

     total energy              =   -1502.88587373 Ry
     Harris-Foulkes estimate   =   -1502.88587767 Ry
     estimated scf accuracy    <       0.00001073 Ry

     iteration #  9     ecut=    42.00 Ry     beta=0.70
     Davidson diagonalization with overlap
     ethr =  2.06E-09,  avg # of iterations =  3.9

     negative rho (up, down):  3.360E-04 0.000E+00

     total cpu time spent up to now is     1224.1 secs

     total energy              =   -1502.88587545 Ry
     Harris-Foulkes estimate   =   -1502.88587569 Ry
     estimated scf accuracy    <       0.00000056 Ry

     iteration # 10     ecut=    42.00 Ry     beta=0.70
     Davidson diagonalization with overlap
     ethr =  1.08E-10,  avg # of iterations =  5.1

     negative rho (up, down):  3.360E-04 0.000E+00

     total cpu time spent up to now is     1362.3 secs

     total energy              =   -1502.88587559 Ry
     Harris-Foulkes estimate   =   -1502.88587570 Ry
     estimated scf accuracy    <       0.00000031 Ry

     iteration # 11     ecut=    42.00 Ry     beta=0.70
     Davidson diagonalization with overlap
     ethr =  5.99E-11,  avg # of iterations =  4.4

     negative rho (up, down):  3.360E-04 0.000E+00

     total cpu time spent up to now is     1471.8 secs

     total energy              =   -1502.88587565 Ry
     Harris-Foulkes estimate   =   -1502.88587566 Ry
     estimated scf accuracy    <       0.00000002 Ry

     iteration # 12     ecut=    42.00 Ry     beta=0.70
     Davidson diagonalization with overlap
     ethr =  4.49E-12,  avg # of iterations =  4.5

     negative rho (up, down):  3.360E-04 0.000E+00

     total cpu time spent up to now is     1610.3 secs

     total energy              =   -1502.88587565 Ry
     Harris-Foulkes estimate   =   -1502.88587566 Ry
     estimated scf accuracy    <          9.9E-09 Ry

     iteration # 13     ecut=    42.00 Ry     beta=0.70
     Davidson diagonalization with overlap
     ethr =  1.89E-12,  avg # of iterations =  4.0

     negative rho (up, down):  3.360E-04 0.000E+00

     total cpu time spent up to now is     1730.3 secs

     total energy              =   -1502.88587565 Ry
     Harris-Foulkes estimate   =   -1502.88587565 Ry
     estimated scf accuracy    <          1.8E-09 Ry

     iteration # 14     ecut=    42.00 Ry     beta=0.70
     Davidson diagonalization with overlap
     ethr =  3.37E-13,  avg # of iterations =  4.0

     negative rho (up, down):  3.360E-04 0.000E+00

     total cpu time spent up to now is     1855.0 secs

     total energy              =   -1502.88587565 Ry
     Harris-Foulkes estimate   =   -1502.88587565 Ry
     estimated scf accuracy    <          1.1E-10 Ry

     iteration # 15     ecut=    42.00 Ry     beta=0.70
     Davidson diagonalization with overlap
     ethr =  1.00E-13,  avg # of iterations =  3.4

     negative rho (up, down):  3.360E-04 0.000E+00

     total cpu time spent up to now is     1949.7 secs

     End of self-consistent calculation

          k = 0.0000 0.0000 0.0000 ( 58821 PWs)   bands (ev):

   -21.0898 -16.9836 -16.8693 -16.8650 -16.6975 -16.6942 -16.3296 -16.2858
   -15.8433 -15.8418 -15.5047 -15.5033 -15.3962 -15.3941 -15.3916 -15.3898
   -15.2254 -15.2230 -15.2215 -15.2197 -15.2052 -15.2029 -14.8657 -14.8640
   -14.8257 -14.8246 -14.4914 -14.4391 -14.3902 -14.3886 -14.3882 -14.3870
   -13.7693 -13.7680 -13.7676 -13.7654 -13.5965 -13.5948 -13.0777 -13.0767
   -13.0307 -13.0293 -12.6335 -12.6319 -12.2497 -12.2491 -12.2439 -12.2429
   -11.6783 -11.6780 -11.6711 -11.6202 -11.5793 -11.5761 -11.5697 -11.4243
   -11.4206 -11.1075 -11.0778 -10.6877 -10.6853 -10.6837 -10.6040 -10.5973
   -10.5963 -10.5957 -10.5766 -10.5717 -10.4549 -10.4526 -10.1807 -10.1554
   -10.1317 -10.1300  -9.9458  -9.9454  -9.9040  -9.9029  -9.9007  -9.8911
    -9.8778  -9.8773  -9.5001  -9.4649  -8.8298  -8.8278  -8.8276  -8.8270
    -8.7152  -8.7128  -7.8960  -7.8942  -7.8490  -7.8479  -7.7917  -7.7686
    -7.6428  -7.6420  -7.6410  -7.6396  -7.1868  -7.1651  -7.1646  -7.1497
    -6.9045  -6.8690  -6.5575  -6.4779  -6.4628  -6.4408  -6.4392  -6.3648
    -6.3638  -6.0768  -6.0745  -5.8411  -5.8387  -5.4758  -5.4643  -5.4613
    -5.4589  -5.4564  -5.4519  -5.3126  -5.0555  -5.0379  -5.0156  -5.0064
    -4.9966  -4.9928  -4.9913  -4.9829  -4.9033  -4.8970  -4.8945  -4.8879
    -4.8848  -4.8784  -4.8513  -4.8486  -4.7318  -4.7303  -4.5264  -4.5205
    -4.4815  -4.4287  -4.4204  -4.2321  -4.2217  -4.0509  -4.0489  -4.0474
    -4.0446  -4.0014  -3.9784  -3.9775  -3.9762  -3.9756  -3.9476  -3.9459
    -3.9415  -3.9404  -3.9283  -3.8891  -3.8878  -3.8801  -3.8772  -3.8130
    -3.8112  -3.8056  -3.8042  -3.7885  -3.7822  -3.7811  -3.7799  -3.6550
    -3.6455  -3.6031  -3.5763  -3.4872  -3.4388  -3.4375  -3.4364  -3.4340
    -3.4321  -3.1319  -3.1101  -3.1001  -3.0874  -3.0786  -2.9824  -2.9809
    -2.9542  -2.9524  -2.8019  -2.8009  -2.7966  -2.7951  -2.7688  -2.7594
    -2.6103  -2.5765  -2.5345  -2.5331  -2.4771  -2.4729  -2.4694  -2.4679
    -2.2139  -2.2137  -2.2063  -2.0185  -2.0157  -2.0061  -2.0015  -1.8260
    -1.6813  -1.6643  -1.4722  -1.4709  -1.3294  -1.3196  -1.3100  -1.2926
    -1.0749  -1.0708  -1.0236  -1.0219  -0.8014  -0.7999  -0.7417  -0.7392
    -0.5855  -0.5736  -0.4667  -0.4408  -0.4283  -0.4260  -0.0588  -0.0481
     0.0142   0.0157   0.0976   0.0997   0.1372   0.3321   0.3459   0.4920
     0.5012   0.5168   0.5189   0.8078   0.9962   1.2270   1.3061   1.6181
     1.6237   1.9951   2.0634   2.4182   2.4282

          k = 0.0000 0.0000 0.1346 ( 58833 PWs)   bands (ev):

   -21.0898 -16.9760 -16.8617 -16.8574 -16.6899 -16.6866 -16.3221 -16.2783
   -15.8358 -15.8343 -15.7062 -15.5965 -15.5921 -15.4251 -15.4218 -15.2875
   -15.1980 -15.1959 -15.1794 -15.1750 -15.0647 -15.0244 -15.0084 -15.0052
   -14.6510 -14.6119 -14.5873 -14.5858 -14.4840 -14.4317 -14.1775 -14.1760
   -13.9636 -13.9617 -13.5893 -13.5876 -13.5601 -13.5583 -13.2678 -13.2198
   -12.8745 -12.8281 -12.6267 -12.6250 -12.4213 -12.4207 -12.0679 -12.0648
   -11.8051 -11.7129 -11.7092 -11.7073 -11.7067 -11.6147 -11.5644 -11.5563
   -11.5528 -11.2384 -11.2085 -10.8194 -10.8179 -10.5868 -10.5800 -10.5557
   -10.5541 -10.5416 -10.4596 -10.4524 -10.3129 -10.3105 -10.3089 -10.3077
   -10.1087 -10.0673 -10.0413 -10.0161  -9.7641  -9.7624  -9.7547  -9.7239
    -9.7237  -9.7200  -9.5463  -9.5124  -9.0118  -9.0106  -8.7834  -8.7811
    -8.6331  -8.6317  -7.9167  -7.9155  -7.8568  -7.8549  -7.8327  -7.8309
    -7.7222  -7.6989  -7.4416  -7.4398  -7.1724  -7.1358  -7.0904  -7.0900
    -6.9674  -6.9321  -6.6907  -6.6487  -6.5408  -6.2953  -6.2943  -6.2622
    -6.2264  -6.0676  -6.0653  -5.8992  -5.8968  -5.7420  -5.7359  -5.4144
    -5.3911  -5.3906  -5.3869  -5.3454  -5.3303  -5.3205  -5.3030  -5.1983
    -5.1930  -5.0380  -5.0274  -5.0000  -4.9925  -4.8507  -4.8446  -4.7849
    -4.7831  -4.6400  -4.6333  -4.5047  -4.4878  -4.4793  -4.4775  -4.4694
    -4.4664  -4.4099  -4.4090  -4.3853  -4.3812  -4.2710  -4.2708  -4.2533
    -4.2487  -4.2244  -4.2139  -4.1105  -4.0994  -3.9936  -3.9382  -3.9357
    -3.9209  -3.8063  -3.8057  -3.8019  -3.7915  -3.7350  -3.7316  -3.7275
    -3.7257  -3.7130  -3.7100  -3.7051  -3.6958  -3.6560  -3.6541  -3.6432
    -3.6310  -3.6267  -3.6225  -3.6171  -3.6078  -3.5962  -3.3101  -3.3029
    -3.2648  -3.1893  -3.1889  -3.1575  -3.1567  -3.1175  -2.9924  -2.9845
    -2.8680  -2.8585  -2.7756  -2.7699  -2.7616  -2.7288  -2.7258  -2.7121
    -2.6097  -2.6037  -2.5105  -2.5083  -2.4568  -2.4479  -2.4233  -2.3740
    -2.3478  -2.2232  -2.2207  -2.1971  -1.9831  -1.8183  -1.7824  -1.7783
    -1.6722  -1.6557  -1.5278  -1.5166  -1.5054  -1.5021  -1.0986  -1.0868
    -1.0679  -1.0638  -1.0267  -1.0249  -0.9901  -0.7728  -0.7690  -0.6091
    -0.6019  -0.5966  -0.5889  -0.4831  -0.4714  -0.2387  -0.1063  -0.0564
    -0.0439  -0.0393   0.0834   0.1378   0.2359   0.3274   0.3408   0.4364
     0.4456   0.4651   0.4669   0.8057   0.9362   1.2215   1.2482   1.5477
     1.5497   1.9501   2.0308   2.2645   2.2710

          k = 0.0000 0.0000 0.2692 ( 58755 PWs)   bands (ev):

   -21.0898 -16.9532 -16.8390 -16.8347 -16.6672 -16.6638 -16.2994 -16.2557
   -15.8939 -15.8135 -15.8118 -15.7834 -15.7790 -15.6119 -15.6086 -15.2503
   -15.2095 -15.1757 -15.1736 -15.0568 -14.9497 -14.9453 -14.7790 -14.7758
   -14.7713 -14.7697 -14.4620 -14.4233 -14.4098 -14.3847 -14.1451 -14.1432
   -13.9522 -13.9507 -13.5677 -13.5660 -13.4456 -13.3970 -13.3388 -13.3370
   -12.6603 -12.6148 -12.6061 -12.6045 -12.5871 -12.5871 -12.0888 -11.9951
   -11.9911 -11.8886 -11.8832 -11.8362 -11.8329 -11.7832 -11.7824 -11.5985
   -11.5484 -11.5147 -11.4842 -11.0938 -11.0922 -10.6198 -10.6103 -10.5862
   -10.5850 -10.4422 -10.4406 -10.2468 -10.2252 -10.2069 -10.1447 -10.1379
   -10.0023  -9.9998  -9.7399  -9.7157  -9.6569  -9.6268  -9.5628  -9.5207
    -9.5165  -9.5164  -9.4831  -9.4735  -9.1816  -9.1806  -8.9573  -8.9555
    -8.4258  -8.4242  -8.0902  -8.0890  -8.0129  -8.0111  -7.7402  -7.7386
    -7.5366  -7.5128  -7.2313  -7.2296  -7.1307  -7.1284  -7.0955  -7.0926
    -6.8976  -6.8970  -6.8929  -6.8538  -6.5434  -6.1163  -6.1153  -6.0511
    -6.0490  -6.0443  -6.0406  -6.0401  -6.0360  -6.0316  -6.0074  -5.8075
    -5.8000  -5.7981  -5.7811  -5.7721  -5.2765  -5.2572  -5.2348  -5.0181
    -5.0060  -4.9770  -4.9697  -4.9445  -4.9379  -4.9269  -4.9256  -4.8237
    -4.8185  -4.7346  -4.7294  -4.5910  -4.5894  -4.5466  -4.5429  -4.4567
    -4.4497  -4.4314  -4.3666  -4.3548  -4.3446  -4.3390  -4.3164  -4.3024
    -4.2718  -4.2014  -4.1910  -4.1194  -4.1084  -4.1078  -4.1052  -3.9714
    -3.8981  -3.8767  -3.8762  -3.8725  -3.8604  -3.8554  -3.8473  -3.6922
    -3.6862  -3.6416  -3.6301  -3.6118  -3.5654  -3.5575  -3.5243  -3.5178
    -3.4902  -3.4891  -3.4819  -3.4795  -3.4171  -3.4150  -3.4031  -3.3402
    -3.2756  -3.2751  -3.1916  -3.1631  -3.1579  -2.9612  -2.9441  -2.9429
    -2.8818  -2.8753  -2.7364  -2.7264  -2.6137  -2.6134  -2.6132  -2.6040
    -2.5995  -2.4927  -2.4919  -2.4123  -2.4093  -2.4073  -2.4046  -2.4026
    -2.3956  -2.1944  -2.1561  -2.1104  -1.7951  -1.7362  -1.7162  -1.7045
    -1.6551  -1.6396  -1.6047  -1.6027  -1.5359  -1.5307  -1.1677  -1.0513
    -1.0491  -1.0427  -1.0380  -0.8655  -0.8599  -0.8546  -0.8510  -0.7784
    -0.6460  -0.6376  -0.5624  -0.5342  -0.3894  -0.2269  -0.1756  -0.0685
    -0.0447  -0.0422  -0.0307   0.2528   0.2808   0.2898   0.3140   0.3187
     0.3213   0.3294   0.3745   0.7713   0.7996   1.0892   1.2045   1.3573
     1.3626   1.8292   1.9393   1.9915   1.9967

          k = 0.0000 0.0000 0.4037 ( 58701 PWs)   bands (ev):

   -21.0898 -16.9151 -16.8011 -16.7968 -16.6292 -16.6259 -16.2617 -16.2181
   -16.0669 -15.9560 -15.9516 -15.7844 -15.7810 -15.7756 -15.7741 -15.4215
   -15.3802 -15.1385 -15.1364 -14.9412 -14.9397 -14.8122 -14.7061 -14.7016
   -14.5358 -14.5325 -14.4251 -14.3730 -14.3128 -14.3109 -14.1821 -14.1442
   -13.7137 -13.7122 -13.6103 -13.5611 -13.5317 -13.5300 -13.1049 -13.1031
   -12.7433 -12.7428 -12.5719 -12.5703 -12.4355 -12.4132 -12.3911 -12.3179
   -12.3136 -12.1567 -12.1534 -11.8846 -11.8837 -11.8305 -11.7991 -11.7184
   -11.7091 -11.5724 -11.5229 -11.4034 -11.4017 -10.8801 -10.8789 -10.6931
   -10.6775 -10.3507 -10.3142 -10.2783 -10.2767  -9.8457  -9.7747  -9.7678
    -9.7611  -9.7511  -9.6312  -9.6286  -9.3830  -9.3622  -9.3489  -9.3374
    -9.3364  -9.3325  -9.3304  -9.3068  -9.1858  -9.1846  -9.1659  -9.1547
    -8.3209  -8.3196  -8.2076  -8.2060  -8.1826  -8.1808  -7.5530  -7.5515
    -7.3510  -7.3154  -7.2766  -7.2527  -7.0952  -7.0577  -7.0527  -7.0187
    -7.0119  -7.0102  -6.6373  -6.6366  -6.5457  -6.3583  -6.3496  -6.2718
    -6.2578  -6.2559  -6.2395  -6.2320  -6.2232  -6.2209  -5.9930  -5.9909
    -5.8772  -5.8762  -5.8195  -5.7831  -5.2313  -5.1215  -5.1198  -5.0878
    -5.0811  -5.0492  -5.0280  -4.9821  -4.9707  -4.9374  -4.9337  -4.9265
    -4.9236  -4.8157  -4.8131  -4.7844  -4.7785  -4.7013  -4.6907  -4.6507
    -4.6367  -4.4437  -4.4277  -4.4137  -4.3157  -4.3139  -4.3097  -4.1774
    -4.1722  -4.1634  -4.1529  -4.1350  -4.1243  -4.0448  -4.0425  -4.0162
    -3.9917  -3.9909  -3.9892  -3.9387  -3.9354  -3.9277  -3.8600  -3.7043
    -3.6967  -3.6209  -3.6161  -3.5031  -3.4968  -3.4721  -3.4644  -3.4267
    -3.4068  -3.3997  -3.3297  -3.3213  -3.3170  -3.3019  -3.3001  -3.2160
    -3.2129  -3.2101  -3.2056  -3.1319  -3.0722  -3.0412  -2.8550  -2.7656
    -2.7612  -2.6913  -2.6874  -2.6868  -2.6832  -2.6818  -2.6759  -2.5555
    -2.5527  -2.3499  -2.3447  -2.3413  -2.3353  -2.2282  -2.2275  -2.2013
    -2.1963  -2.1494  -1.9607  -1.8895  -1.8808  -1.8515  -1.7584  -1.7483
    -1.7456  -1.6495  -1.6348  -1.4731  -1.3375  -1.2710  -1.2703  -1.0914
    -1.0900  -1.0218  -1.0105  -0.9917  -0.9882  -0.9374  -0.7283  -0.7224
    -0.7112  -0.6201  -0.6164  -0.6069  -0.3431  -0.3023  -0.2910  -0.1723
    -0.0247  -0.0143   0.0548   0.0633   0.1048   0.1052   0.1409   0.2955
     0.3186   0.3624   0.5085   0.5346   0.7874   0.8601   1.0987   1.1086
     1.1740   1.6583   1.6982   1.7030   1.8032

          k = 0.0000 0.0000 0.5383 ( 58671 PWs)   bands (ev):

   -21.0898 -16.8619 -16.7480 -16.7437 -16.5762 -16.5728 -16.2257 -16.2085
   -16.1655 -16.1137 -16.1094 -15.9420 -15.9387 -15.7232 -15.7217 -15.5783
   -15.5366 -15.0968 -15.0953 -15.0864 -15.0844 -14.5539 -14.4665 -14.4646
   -14.4488 -14.4444 -14.3736 -14.3217 -14.2790 -14.2758 -13.9276 -13.8904
   -13.7615 -13.7118 -13.4814 -13.4798 -13.4622 -13.4608 -12.8881 -12.8875
   -12.8586 -12.8570 -12.7447 -12.6477 -12.6433 -12.5245 -12.5228 -12.4845
   -12.4813 -12.2014 -12.1584 -12.1536 -12.1213 -11.9950 -11.9941 -11.7193
   -11.7176 -11.5726 -11.5570 -11.5379 -11.4894 -11.1785 -11.1773 -10.8222
   -10.7988 -10.4056 -10.3748 -10.0806 -10.0791  -9.8539  -9.8377  -9.4778
    -9.4775  -9.4370  -9.4353  -9.4347  -9.3627  -9.3560  -9.2333  -9.2306
    -9.1747  -9.1732  -9.1218  -9.0806  -9.0036  -8.9809  -8.8449  -8.8312
    -8.5773  -8.5760  -8.3421  -8.3403  -7.9794  -7.9778  -7.5988  -7.5625
    -7.3066  -7.3051  -7.2993  -7.2639  -6.9742  -6.9505  -6.9415  -6.9105
    -6.7845  -6.7829  -6.7417  -6.7039  -6.7003  -6.6897  -6.6865  -6.6560
    -6.6535  -6.5408  -6.4928  -6.4910  -6.3431  -6.3422  -5.9269  -5.9251
    -5.6111  -5.6101  -5.5900  -5.5540  -5.4359  -5.4274  -5.3421  -5.3407
    -5.2782  -5.2767  -5.1687  -5.0562  -5.0549  -4.9577  -4.9424  -4.9387
    -4.9235  -4.8825  -4.8771  -4.8219  -4.8021  -4.7302  -4.7236  -4.5541
    -4.5536  -4.4762  -4.4565  -4.4520  -4.4401  -4.4286  -4.3447  -4.2141
    -4.2120  -4.2043  -4.1786  -4.1464  -4.1461  -4.1328  -4.1232  -4.1089
    -4.0989  -4.0004  -3.9946  -3.9640  -3.9574  -3.8888  -3.8070  -3.7624
    -3.7532  -3.5713  -3.5683  -3.5372  -3.4811  -3.4727  -3.4262  -3.4189
    -3.3589  -3.3555  -3.2922  -3.2861  -3.1897  -3.1643  -3.1624  -3.1290
    -3.0829  -3.0780  -3.0636  -2.9475  -2.9415  -2.9397  -2.9354  -2.9207
    -2.6353  -2.6321  -2.6303  -2.6138  -2.6088  -2.5693  -2.4097  -2.4078
    -2.4024  -2.3051  -2.2971  -2.0989  -2.0659  -2.0563  -2.0410  -2.0306
    -1.9891  -1.9854  -1.9504  -1.9477  -1.9263  -1.9236  -1.7639  -1.7036
    -1.6718  -1.6560  -1.5770  -1.4842  -1.1983  -1.1795  -1.1744  -1.1730
    -1.1684  -1.0898  -1.0018  -0.9920  -0.9694  -0.9624  -0.9135  -0.8462
    -0.8420  -0.7282  -0.5612  -0.4732  -0.4407  -0.3439  -0.3346  -0.2211
    -0.2124  -0.1573  -0.1563   0.0026   0.0145   0.0434   0.2179   0.2548
     0.2766   0.4174   0.4617   0.5891   0.6369   0.7674   0.8080   0.8200
     1.1229   1.4018   1.4119   1.4578   1.6361

          k = 0.0000 0.0000 0.6729 ( 58671 PWs)   bands (ev):

   -21.0898 -16.7935 -16.6798 -16.6756 -16.5080 -16.5047 -16.3689 -16.2568
   -16.2524 -16.1411 -16.0978 -16.0849 -16.0816 -15.7204 -15.6783 -15.6558
   -15.6543 -15.2379 -15.2364 -15.0197 -15.0176 -14.6060 -14.6040 -14.3076
   -14.2822 -14.2559 -14.1782 -14.1738 -14.0091 -14.0059 -13.8990 -13.8487
   -13.6602 -13.6238 -13.4169 -13.4153 -13.1985 -13.1970 -13.0722 -13.0202
   -13.0193 -12.9737 -12.9692 -12.8088 -12.8056 -12.6016 -12.5999 -12.4735
   -12.4639 -12.4623 -12.4404 -12.1060 -12.1044 -12.0323 -12.0307 -11.9597
   -11.9173 -11.4986 -11.4785 -11.4748 -11.4709 -11.4491 -11.4463 -11.0060
   -10.9757 -10.3917 -10.3694  -9.8774  -9.8678  -9.8594  -9.8579  -9.6859
    -9.6850  -9.6022  -9.6017  -9.0334  -9.0320  -9.0110  -8.9402  -8.9335
    -8.8838  -8.8434  -8.8429  -8.8416  -8.8197  -8.8170  -8.6138  -8.5926
    -8.5344  -8.5172  -8.4920  -8.4902  -7.8582  -7.8211  -7.7424  -7.7408
    -7.5102  -7.4774  -7.2066  -7.1574  -7.1497  -7.0922  -7.0897  -7.0622
    -7.0477  -7.0152  -7.0137  -6.7922  -6.7640  -6.7412  -6.7395  -6.6512
    -6.6237  -6.5501  -6.5486  -6.5387  -6.0335  -6.0327  -5.8408  -5.8391
    -5.7708  -5.7597  -5.6357  -5.6342  -5.5780  -5.5766  -5.3568  -5.3361
    -5.3352  -5.3212  -5.2818  -5.2669  -5.2668  -5.2644  -5.0883  -4.8924
    -4.8733  -4.8198  -4.8197  -4.8120  -4.8079  -4.6637  -4.6562  -4.6065
    -4.5930  -4.5749  -4.4547  -4.4456  -4.4005  -4.3798  -4.3610  -4.3602
    -4.3366  -4.3360  -4.2941  -4.2539  -4.2299  -4.2221  -4.2187  -4.0512
    -4.0462  -4.0372  -4.0292  -3.8637  -3.8527  -3.8401  -3.8315  -3.8240
    -3.7392  -3.6394  -3.6189  -3.6117  -3.5041  -3.5019  -3.4276  -3.4203
    -3.3260  -3.2289  -3.1916  -3.1874  -3.1694  -3.1670  -3.1638  -3.1181
    -3.0785  -3.0762  -3.0566  -3.0506  -3.0280  -2.6118  -2.6018  -2.5602
    -2.5589  -2.5474  -2.5420  -2.5340  -2.3856  -2.3523  -2.2868  -2.2799
    -2.1783  -2.1662  -2.1460  -2.1441  -2.1304  -2.1273  -2.1073  -2.0335
    -1.7778  -1.7746  -1.7650  -1.7574  -1.7311  -1.7170  -1.6598  -1.6585
    -1.6336  -1.6189  -1.5676  -1.3991  -1.3875  -1.2985  -1.2971  -1.2858
    -1.2227  -1.1642  -0.9970  -0.9943  -0.9134  -0.9111  -0.9016  -0.8634
    -0.8587  -0.7178  -0.7090  -0.5722  -0.5445  -0.5203  -0.5116  -0.4460
    -0.4447  -0.0840  -0.0762  -0.0474   0.0326   0.0450   0.1768   0.1977
     0.2961   0.3368   0.5039   0.5165   0.5503   0.6151   0.7351   0.7569
     1.0072   1.1091   1.1734   1.2396   1.4485

          k = 0.0000 0.0000 0.8075 ( 58672 PWs)   bands (ev):

   -21.0898 -16.7100 -16.5966 -16.5924 -16.4975 -16.4249 -16.4215 -16.3848
   -16.3804 -16.2131 -16.2097 -16.0583 -16.0153 -15.8478 -15.8053 -15.5736
   -15.5720 -15.3644 -15.3629 -14.9382 -14.9362 -14.7312 -14.7292 -14.2269
   -14.1755 -14.0225 -13.9975 -13.9718 -13.8948 -13.8903 -13.7264 -13.7232
   -13.3915 -13.3803 -13.3447 -13.3383 -13.3368 -13.2915 -13.2870 -13.1397
   -13.1385 -13.1252 -13.1220 -12.9228 -12.9213 -12.7859 -12.7519 -12.3910
   -12.3894 -12.3383 -12.3368 -12.3335 -12.3318 -12.2102 -12.2086 -11.7695
   -11.7678 -11.7134 -11.6729 -11.4588 -11.4265 -11.4138 -11.3928 -11.2268
   -11.1918 -10.2979 -10.2844  -9.9240  -9.9209  -9.8533  -9.8479  -9.7088
    -9.7076  -9.6208  -9.6193  -9.1088  -9.1074  -8.9001  -8.8985  -8.6366
    -8.6333  -8.6316  -8.5966  -8.5725  -8.5062  -8.4993  -8.3962  -8.3933
    -8.2433  -8.2217  -8.2198  -8.2002  -8.1207  -8.0827  -7.7339  -7.7049
    -7.6682  -7.6126  -7.6052  -7.5288  -7.5265  -7.4981  -7.4964  -7.4391
    -7.4228  -6.9947  -6.9930  -6.6924  -6.6910  -6.6006  -6.5749  -6.5464
    -6.3100  -6.3085  -6.3034  -6.2850  -6.0823  -6.0677  -5.9946  -5.9933
    -5.8211  -5.8196  -5.7335  -5.7321  -5.7193  -5.7187  -5.6179  -5.5999
    -5.4482  -5.4481  -5.1213  -5.1064  -5.1062  -5.0866  -5.0637  -5.0628
    -4.9917  -4.8536  -4.8306  -4.7469  -4.7258  -4.7227  -4.6617  -4.6358
    -4.5667  -4.5638  -4.5568  -4.5558  -4.5048  -4.5015  -4.4361  -4.4306
    -4.3748  -4.3583  -4.3290  -4.3249  -4.2191  -4.1282  -4.1202  -4.1155
    -4.0122  -4.0030  -3.9904  -3.9572  -3.9472  -3.8101  -3.7474  -3.7373
    -3.6849  -3.6748  -3.6569  -3.6568  -3.4738  -3.4664  -3.4498  -3.4217
    -3.4198  -3.3606  -3.3220  -3.2791  -3.2238  -3.2221  -3.1091  -3.1038
    -3.0433  -3.0399  -3.0330  -2.8426  -2.8391  -2.4779  -2.4692  -2.4464
    -2.4428  -2.3569  -2.3562  -2.3129  -2.3098  -2.2997  -2.2935  -2.2402
    -2.2377  -2.1639  -2.1524  -2.1403  -1.9587  -1.8939  -1.8921  -1.8329
    -1.8167  -1.7989  -1.7408  -1.6561  -1.6445  -1.5675  -1.5653  -1.5508
    -1.4660  -1.4631  -1.4601  -1.4535  -1.4488  -1.3762  -1.3607  -1.3592
    -1.3449  -1.1716  -1.1702  -1.1681  -1.0206  -0.9841  -0.8433  -0.8338
    -0.8285  -0.8226  -0.7484  -0.7468  -0.6702  -0.6652  -0.6006  -0.4240
    -0.4138  -0.3588  -0.0068   0.0573   0.0717   0.1562   0.1654   0.1920
     0.1975   0.2064   0.2170   0.5467   0.6279   0.6671   0.7591   0.8263
     0.8447   0.8668   1.0114   1.0565   1.2476

          k = 0.0000 0.0000-0.9421 ( 58666 PWs)   bands (ev):

   -21.0898 -16.6148 -16.6077 -16.5021 -16.4987 -16.4945 -16.4893 -16.3301
   -16.3271 -16.3227 -16.3189 -15.9641 -15.9569 -15.9212 -15.9142 -15.4794
   -15.4785 -15.4733 -15.4712 -14.8453 -14.8429 -14.8388 -14.8369 -14.1337
   -14.1301 -14.0833 -14.0783 -13.7019 -13.6988 -13.6005 -13.5974 -13.5963
   -13.5926 -13.4333 -13.4298 -13.4295 -13.4270 -13.2474 -13.2464 -13.2442
   -13.2425 -13.0904 -13.0867 -13.0553 -13.0522 -12.6374 -12.6360 -12.6343
   -12.6327 -12.3077 -12.3056 -12.3040 -12.3025 -12.0574 -12.0556 -12.0541
   -12.0526 -11.4693 -11.4642 -11.4309 -11.4295 -11.4276 -11.4274 -11.3893
   -11.3879 -10.1348 -10.1343 -10.1279 -10.1271  -9.7945  -9.7938  -9.7919
    -9.7907  -9.3715  -9.3703  -9.3670  -9.3662  -8.7699  -8.7683  -8.7670
    -8.7652  -8.3819  -8.3805  -8.3426  -8.3420  -8.1265  -8.1219  -8.0650
    -8.0610  -8.0582  -8.0536  -7.9822  -7.9755  -7.9734  -7.9687  -7.9628
    -7.9582  -7.9477  -7.9406  -7.8300  -7.8235  -7.8114  -7.8060  -7.2482
    -7.2479  -7.2470  -7.2457  -6.5486  -6.3613  -6.3594  -6.3494  -6.3493
    -6.3484  -6.3473  -6.3425  -6.3413  -6.0674  -6.0655  -6.0649  -6.0638
    -5.9614  -5.9599  -5.9429  -5.9407  -5.6043  -5.6038  -5.6022  -5.6010
    -5.4093  -5.4083  -5.4072  -5.4069  -4.8950  -4.8889  -4.8845  -4.8598
    -4.8545  -4.8500  -4.8404  -4.8186  -4.8037  -4.8027  -4.7959  -4.7936
    -4.6275  -4.6257  -4.6194  -4.6158  -4.5173  -4.5049  -4.4642  -4.4564
    -4.3774  -4.3749  -4.1812  -4.1764  -4.1736  -4.1614  -4.1607  -4.1485
    -4.1435  -4.1000  -3.8658  -3.8633  -3.8555  -3.8551  -3.8497  -3.8452
    -3.5752  -3.5642  -3.5606  -3.5564  -3.5549  -3.5542  -3.5515  -3.5249
    -3.3579  -3.3555  -3.3380  -3.3365  -3.3129  -3.3096  -3.0585  -3.0566
    -3.0552  -3.0487  -3.0336  -2.5967  -2.5939  -2.5926  -2.5911  -2.4074
    -2.3984  -2.3773  -2.3690  -2.3578  -2.3532  -2.3525  -2.3492  -1.9797
    -1.9765  -1.9607  -1.9574  -1.9479  -1.9438  -1.9367  -1.9329  -1.8962
    -1.8430  -1.7829  -1.7719  -1.6646  -1.6637  -1.6618  -1.6596  -1.4889
    -1.4821  -1.4580  -1.4528  -1.3661  -1.3634  -1.3607  -1.3585  -1.1955
    -1.1896  -1.1521  -1.1430  -1.1420  -1.1335  -1.0615  -1.0602  -1.0486
    -1.0467  -0.7669  -0.7652  -0.7478  -0.7465  -0.6762  -0.6614  -0.3134
    -0.3091  -0.1316  -0.1209  -0.1200  -0.1083   0.1140   0.1203   0.1312
     0.1414   0.4619   0.4705   0.4713   0.4825   0.6969   0.7113   0.7743
     0.7832   0.9642   0.9664   1.0379   1.0397

     highest occupied level (ev):     2.4282

!    total energy              =   -1502.88587565 Ry
     Harris-Foulkes estimate   =   -1502.88587565 Ry
     estimated scf accuracy    <          2.1E-11 Ry

     The total energy is the sum of the following terms:

     one-electron contribution =   -4015.94935097 Ry
     hartree contribution      =    2181.47097486 Ry
     xc contribution           =    -464.55127324 Ry
     ewald contribution        =     796.14377370 Ry

     convergence has been achieved in  15 iterations

     Writing output data file N2-cnt.save
 
     init_run     :    135.61s CPU    136.39s WALL (       1 calls)
     electrons    :   1798.38s CPU   1813.44s WALL (       1 calls)

     Called by init_run:
     wfcinit      :    131.27s CPU    131.87s WALL (       1 calls)
     potinit      :      1.10s CPU      1.12s WALL (       1 calls)

     Called by electrons:
     c_bands      :   1552.88s CPU   1563.02s WALL (      15 calls)
     sum_band     :    228.42s CPU    231.12s WALL (      15 calls)
     v_of_rho     :      6.64s CPU      6.68s WALL (      16 calls)
     newd         :      9.38s CPU     11.67s WALL (      16 calls)
     mix_rho      :      1.20s CPU      1.21s WALL (      15 calls)

     Called by c_bands:
     init_us_2    :     10.83s CPU     10.90s WALL (     248 calls)
     cegterg      :   1519.05s CPU   1528.91s WALL (     120 calls)

     Called by sum_band:
     sum_band:bec :      0.28s CPU      0.28s WALL (     120 calls)
     addusdens    :     12.03s CPU     14.28s WALL (      15 calls)

     Called by *egterg:
     h_psi        :    969.29s CPU    970.51s WALL (     577 calls)
     s_psi        :    137.10s CPU    137.11s WALL (     577 calls)
     g_psi        :      4.32s CPU      4.33s WALL (     449 calls)
     cdiaghg      :    264.12s CPU    264.23s WALL (     569 calls)

     Called by h_psi:
     h_psi:pot    :    963.42s CPU    964.65s WALL (     577 calls)
     h_psi:calbec :    133.12s CPU    133.11s WALL (     577 calls)
     vloc_psi     :    693.49s CPU    694.64s WALL (     577 calls)
     add_vuspsi   :    136.81s CPU    136.89s WALL (     577 calls)

     General routines
     calbec       :    176.29s CPU    176.27s WALL (     697 calls)
     fft          :      6.04s CPU      6.05s WALL (     252 calls)
     ffts         :      0.11s CPU      0.12s WALL (      31 calls)
     fftw         :    561.46s CPU    561.94s WALL (  220676 calls)
     interpolate  :      1.02s CPU      1.02s WALL (      31 calls)
     davcio       :      0.00s CPU      0.31s WALL (       8 calls)
 
     Parallel routines
     fft_scatter  :    180.41s CPU    179.54s WALL (  220959 calls)
 
     PWSCF        : 32m14.45s CPU    32m30.65s WALL

 
   This run was terminated on:  16:22:43  17Aug2017            

=------------------------------------------------------------------------------=
   JOB DONE.
=------------------------------------------------------------------------------=
